/*--------------------------------*- C++ -*----------------------------------*\
  =========                 |
  \\      /  F ield         | OpenFOAM: The Open Source CFD Toolbox
   \\    /   O peration     | Website:  https://openfoam.org
    \\  /    A nd           | Version:  9
     \\/     M anipulation  |
\*---------------------------------------------------------------------------*/
FoamFile
{
   
    format      ascii;
    class       volScalarField;
    location    "0";
    object      omega;
}
// * * * * * * * * * * * * * * * * * * * * * * * * * * * * * * * * * * * * * //



dimensions      [0 0 -1 0 0 0 0];

internalField   uniform 0.008544;

boundaryField
{

    inlet
    {
        type            fixedValue; 
        value           uniform 0.008544;
    }

    outlet
    {
        type            zeroGradient;
    }
    
    blade
    {
        type            omegaWallFunction;
        value           uniform 0.008544;
    }
    
    wall
    {
        type            slip;
    }

    masterAMI
    {
        type            cyclicAMI;
value           uniform 0.008544;
    }

    slaveAMI
    {
        type            cyclicAMI;
value           uniform 0.008544;
    }
    
}

// ************************************************************************* //
