/*--------------------------------*- C++ -*----------------------------------*\
  =========                 |
  \\      /  F ield         | OpenFOAM: The Open Source CFD Toolbox
   \\    /   O peration     | Website:  https://openfoam.org
    \\  /    A nd           | Version:  9
     \\/     M anipulation  |
\*---------------------------------------------------------------------------*/
FoamFile
{
   
    format      ascii;
    class       volScalarField;
    location    "0";
    object      T;

}
// * * * * * * * * * * * * * * * * * * * * * * * * * * * * * * * * * * * * * //

    

dimensions      [0 0 0 1 0 0 0];

internalField   uniform 293;

boundaryField
{
    outlet
    {
        type            zeroGradient;
    }

    inlet
    {
        type            fixedValue;
        value           uniform 293;
    }

    blade
    {
        type            zeroGradient;
    }
    
    wall
    {
    	 type            slip;
    }

    masterAMI
    {
        type            cyclicAMI;
     value           uniform 293;
    }

    slaveAMI
    {
        type            cyclicAMI;
     value           uniform 293;
    }



}


  #includeEtc "caseDicts/setConstraintTypes"
// ************************************************************************* //
