/*--------------------------------*- C++ -*----------------------------------*\
  =========                 |
  \\      /  F ield         | OpenFOAM: The Open Source CFD Toolbox
   \\    /   O peration     | Website:  https://openfoam.org
    \\  /    A nd           | Version:  9
     \\/     M anipulation  |
\*---------------------------------------------------------------------------*/
FoamFile
{
  
    format      ascii;
    class       volVectorField;
    location    "0";
    object      U;
}
// * * * * * * * * * * * * * * * * * * * * * * * * * * * * * * * * * * * * * //

Uinlet          (10.21 0 0);

dimensions      [0 1 -1 0 0 0 0];

internalField   uniform $Uinlet;

boundaryField
{

    inlet
    {
        type  fixedValue;
        value $internalField;
    }
    
    outlet
    {
        type            zeroGradient;
    }
     
    blade
    {

 type            rotatingWallVelocity;
        origin          (0 0 0);
        axis            (-1 0 0);
        omega           0.76; //  7.2535 RPM,   (RPM/60)*2*PI=rPs
    }
    
    wall
    {
    	type            slip;
    }

    masterAMI
    {
        type            cyclicAMI;
value         uniform (1 0 0);
    }
    
    slaveAMI
    {
        type            cyclicAMI;
Uinlet          uniform (1 0 0);
    }

}

// ************************************************************************* //
